# vtk DataFile Version 2.0
Unstructured Grid
ASCII
DATASET UNSTRUCTURED_GRID
POINTS 4381 double
-0.0399991 0.01143 0
-0.0065991 0.01143 0
0.0101009 0.0403552 0
0.0298982 0.0289252 0
0.0130424 0 0
0.0298982 -0.0289252 0
0.0101009 -0.0403552 0
-0.0065991 -0.01143 0
-0.0399991 -0.01143 0
-0.0052 0 0
0.0026 0.00450357 0
0.0026 -0.00450357 0
-0.000864056 -0.00250349 0
0.0026 -0.000503571 0
-0.00183512 -0.00818517 0
0.00792979 -0.00250357 0
-0.000298584 -0.00552396 0
-0.00466345 -0.00477795 0
0.00252975 -0.00893118 0
0.00488965 -0.00250357 0
0.00640972 -0.0065544 0
0.00640972 0.00154726 0
-0.00531473 -0.00819609 0
-0.0232991 -0.01143 0
-0.0149491 -0.01143 0
-0.0107741 -0.01143 0
-0.0086866 -0.00872893 0
-0.0128616 -0.0076595 0
0.0017509 -0.0258926 0
0.0214703 -0.0144626 0
0.00965127 0.000453032 0
0.0172564 -0.0072313 0
0.0118705 -0.00629293 0
0.0214703 0.0144626 0
0.0110072 -0.00231591 0
0.00960825 -0.00470178 0
0.0092005 -0.00768524 0
0.0151494 -0.00361565 0
0.00632528 -0.0107719 0
0.0126987 -0.0111373 0
0.0172564 0.0072313 0
0.00973055 0.0060364 0
0.0151494 0.00361565 0
0.0117414 0.00317988 0
0.0130797 0.00625797 0
0.0110609 0.0113505 0
-0.00963342 -0.00374101 0
-0.0191241 -0.00665544 0
-0.0024241 -0.0186613 0
0.00951724 -0.0108627 0
0.00778009 -0.0157765 0
0.0108409 -0.0140946 0
0.0119235 -0.019691 0
0.0161186 -0.0153479 0
0.0144667 0.00975424 0
0.0193633 0.0108469 0
0.0152439 0.0158438 0
0.0138754 0.0129241 0
0.0165828 0.0117891 0
0.0017509 0.0258926 0
0.0204168 0.0126548 0
0.0183399 0.0150759 0
0.0184117 0.0126124 0
0.0167783 0.0137976 0
0.0100234 0.0165101 0
0.0256842 0.0216939 0
0.017985 0.0202701 0
0.0235773 0.0180783 0
0.0204374 0.0174862 0
0.0214318 0.0208344 0
0.0199996 0.0346402 0
0.0188316 0.0259075 0
-0.0161742 -0.00828862 0
-0.0153887 -0.00338908 0
-0.0191241 -0.01143 0
-0.000499835 -0.0135149 0
0.0228506 0.0247646 0
5.85781e-06 -0.0105561 0
-0.0045116 -0.0150457 0
-0.00322606 -0.0115263 0
0.0030992 -0.0126074 0
0.00242986 -0.0175432 0
0.0277912 0.0253096 0
0.0249489 0.0317827 0
0.0281662 0.0299252 0
0.0288912 0.0271972 0
0.0256801 0.0278041 0
0.0216299 0.0291162 0
0.0224742 0.0332114 0
0.0198986 0.0316078 0
0.0150502 0.0374977 0
0.0186485 0.0288918 0
0.0159024 0.0332588 0
0.0141036 0.0271152 0
0.0059259 0.0331239 0
0.0081009 0.0368911 0
0.0109201 0.032752 0
0.0118329 0.0393552 0
0.0091009 0.0386231 0
0.011199 0.0362571 0
-0.000864056 0.00250349 0
-0.00183512 0.00818517 0
-0.000298584 0.00552396 0
0.00252975 0.00893118 0
-0.00466345 0.00477795 0
0.00584295 0.00676938 0
0.00831675 0.0092139 0
0.00734832 0.0132881 0
-0.0024241 0.0186613 0
-0.00531473 0.00819609 0
-0.0232991 0.01143 0
-0.0149491 0.01143 0
-0.0107741 0.01143 0
-0.0102997 0.00547517 0
-0.0086866 0.00872893 0
-0.0119847 0.00833725 0
-0.0155888 0.00428836 0
0.0053457 0.0106599 0
0.00226366 0.0150854 0
0.00257459 0.012016 0
-0.0045116 0.0150457 0
1.36483e-05 0.0105105 0
8.81976e-05 0.0133146 0
-0.000525274 0.0162899 0
-0.00303422 0.0119945 0
-0.0003366 0.022277 0
0.000737086 0.0192466 0
0.0040811 0.0221368 0
-0.0155524 0.00788457 0
-0.0191241 0.01143 0
-0.02083 0.0061397 0
0.00588093 0.0172279 0
0.00786943 0.027088 0
-0.0212116 0.00918294 0
-0.0316491 0.01143 0
-0.01851 0.00797614 0
-0.0257395 0.00706968 0
-0.0182098 0.00521313 0
-0.0209595 0.00160542 0
-0.0178414 0.00208065 0
-0.018866 -0.0016636 0
-0.014071 0.000486609 0
-0.0249916 -0.00328164 0
-0.0221892 -0.00148693 0
-0.026157 0.00188159 0
-0.022 -0.00486781 0
-0.0316491 -0.01143 0
-0.0221121 -0.00825531 0
-0.0247667 -0.00647183 0
-0.0399991 0 0
-0.0298356 -0.00522618 0
0.00867423 0.0210364 0
0.00369045 0.0192092 0
0.00627631 0.0198665 0
0.00818815 0.0182311 0
0.00655674 0.0223341 0
0.0077973 0.0159753 0
0.00575057 0.0149362 0
0.00936949 0.0143315 0
0.00405724 0.016182 0
0.00522548 0.0128286 0
0.00916626 0.0122459 0
0.0119694 0.0147386 0
0.00397665 0.0142988 0
0.00209106 0.0173827 0
0.00736011 0.0112021 0
0.0108371 0.0192169 0
0.00914318 0.0241781 0
0.00507457 0.0253016 0
0.0124751 0.0172487 0
0.0115152 0.0222182 0
0.0139018 0.0201018 0
0.0109882 0.0267194 0
0.0038384 0.0295083 0
0.014858 0.0235839 0
0.0121861 0.0297496 0
0.015397 0.0300716 0
0.00895663 0.0301559 0
-0.0124296 -0.00223328 0
-0.00925483 0.000307824 0
-0.0125856 0.00328352 0
-0.0234412 0.00394526 0
0.0177564 0.0231867 0
0.0203821 0.023722 0
0.0142827 -0.00837352 0
0.0193633 -0.0108469 0
0.0183098 -0.00903913 0
0.0162422 -0.00903313 0
0.014679 -0.0104365 0
0.0172708 -0.0108555 0
0.0145245 -0.0131484 0
0.0183279 -0.0135206 0
0.0132326 -0.0157622 0
0.0256842 -0.0216939 0
0.0105556 -0.0170527 0
0.0151084 -0.0185696 0
0.0190899 -0.0166911 0
0.00733754 -0.0203951 0
0.0235773 -0.0180783 0
0.0152581 -0.0240784 0
0.00551105 -0.0178896 0
0.0049119 -0.0149714 0
-0.0003366 -0.022277 0
0.00357685 -0.0212181 0
0.0059259 -0.0331239 0
0.00637609 -0.0250054 0
0.0203549 -0.0223778 0
0.0037842 -0.023993 0
0.00586374 -0.0224931 0
0.0038384 -0.0295083 0
0.00903569 -0.0231546 0
0.00279465 -0.0277004 0
0.00538214 -0.0274118 0
0.00371921 -0.0259614 0
0.00690384 -0.0301489 0
0.00868449 -0.0273673 0
0.0199996 -0.0346402 0
0.0121157 -0.0315246 0
0.00906842 -0.0325086 0
0.0080134 -0.0367396 0
0.0150502 -0.0374977 0
0.0116874 -0.0354087 0
0.0150111 -0.0338095 0
0.0164746 -0.028978 0
0.0246308 -0.0198861 0
0.0219661 -0.020228 0
0.0235153 -0.021747 0
0.0277912 -0.0253096 0
0.0246728 -0.024705 0
0.0211602 -0.0179454 0
0.018636 -0.0197761 0
0.0249489 -0.0317827 0
0.0175235 -0.0223798 0
0.0281662 -0.0299252 0
0.0288912 -0.0271972 0
0.0256911 -0.0277977 0
0.018394 -0.0259007 0
0.0149668 -0.0213299 0
0.0122371 -0.023009 0
0.0219186 -0.0273259 0
0.0125598 -0.0268991 0
-0.00749465 -0.00591885 0
-0.0101947 -0.00643138 0
-0.0119359 -0.00466436 0
-0.00693332 -0.00322847 0
-0.000366739 -0.0164976 0
0.00180738 -0.0149455 0
0.000240817 -0.0191353 0
-0.00346797 0.00100004 0
-0.00346797 -0.00100004 0
-0.00545881 0.00244817 0
-0.00523509 -0.0020607 0
-0.00721765 -0.000996289 0
-0.00341187 -0.0030959 0
-0.00697342 0.00105029 0
-0.00247256 -0.00510148 0
-0.00803224 0.00371701 0
-0.00382914 -0.00670803 0
-0.00785325 0.00628905 0
-0.0274741 0.01143 0
-0.0295616 0.00807442 0
-0.0399991 0.005715 0
-0.0284124 0.00467391 0
-0.0348319 0.00712287 0
-0.0312977 3.63466e-05 0
-0.0318038 0.00542225 0
-0.0355171 0.00235658 0
-0.0274741 -0.01143 0
-0.0278336 -0.00801546 0
-0.0310769 -0.00823029 0
-0.0399991 -0.005715 0
-0.0358241 -0.01143 0
-0.0349461 -0.00487306 0
-0.0337366 -0.01143 0
-0.0326929 -0.00959235 0
-0.0334489 -0.00705578 0
-0.0347804 -0.00962193 0
-0.0399991 -0.0085725 0
-0.03743 -0.00929764 0
-0.0323673 -0.00470906 0
-0.0358573 -0.00743467 0
-0.0306199 -0.0026097 0
-0.0338416 -0.00188349 0
-0.0374508 -0.00542496 0
-0.0278363 -0.00320115 0
-0.0367831 -0.00249558 0
-0.0287647 -0.00072462 0
-0.0399991 -0.0028575 0
-0.0263572 -0.00123434 0
-0.0293202 0.00202239 0
-0.0319761 0.00268933 0
0.0178695 -0.0320379 0
0.0224742 -0.0332114 0
0.0195786 -0.0294108 0
0.0224157 -0.0302527 0
-0.0358241 0.01143 0
-0.0399991 0.0085725 0
-0.037613 0.00714375 0
-0.037544 0.0043216 0
-0.0379991 0.01143 0
-0.0369116 0.00936745 0
-0.0345703 0.00945097 0
-0.0323358 0.00802115 0
-0.0399991 0.0028575 0
-0.00627801 -0.0106215 0
-0.00615769 -0.0083293 0
-0.00712097 -0.0107547 0
0.00317241 -0.00100357 0
0.0026 -0.00350357 0
0.00317241 -0.00400357 0
-0.000722688 -0.00325861 0
0.00187535 -0.00475867 0
0.00173399 -0.00400355 0
-0.00199448 -0.00741425 0
-0.00145098 -0.00751987 0
-0.000842079 -0.00541834 0
-0.01063 -0.00598963 0
-0.00977375 -0.0044136 0
-0.010209 -0.00397185 0
-0.0223436 0.00865463 0
-0.0220574 0.0063722 0
-0.0209254 0.00690051 0
-0.000722688 0.00325861 0
-0.0013898 0.00533746 0
-0.00181391 0.00307211 0
-0.00477929 -0.0023195 0
-0.00345395 -0.001524 0
-0.00390975 -0.0012652 0
0.00173399 0.000248194 0
-0.000864056 -0.00125175 0
1.95831e-06 -0.00200351 0
0.00355243 9.13657e-06 0
0.00355243 0.00376449 0
0.0026 0.00325179 0
0.00754977 -0.00351628 0
0.00716975 -0.00250357 0
0.00526966 -0.00351628 0
-0.00151503 0.00162761 0
-0.00151503 -0.00212763 0
0.00526966 -0.00149086 0
0.0100195 0.0144333 0
0.010638 0.0120958 0
0.011288 0.0121976 0
0.0159291 0.0169504 0
0.0160179 0.0156519 0
0.0182512 0.0163745 0
0.0238047 -0.0224865 0
0.0254314 -0.0224467 0
0.025142 -0.0217072 0
0.0064614 0.00738051 0
0.00875865 0.00621965 0
0.0093771 0.00683078 0
0.0004085 -0.00637576 0
0.00258244 -0.00561047 0
0.00349974 -0.00833698 0
0.00355243 -0.00501628 0
-0.00150101 -0.00265159 0
-0.00317704 -0.0035973 0
-0.00126618 -0.00315299 0
0.015866 -0.0161533 0
0.0161037 -0.0181 0
0.0168614 -0.0156837 0
-0.0007439 -0.00837167 0
-0.00909872 -0.00428547 0
-0.00816967 -0.00604698 0
-0.00479256 -0.00902864 0
-0.00575584 -0.0114541 0
-0.00190976 -0.0181204 0
-0.00347538 -0.0154086 0
-0.00294597 -0.0177574 0
0.0116547 -0.00529868 0
0.0106575 -0.00291238 0
0.0113049 -0.00589514 0
0.00754977 -0.00149086 0
0.0165129 -0.00751686 0
0.0167296 -0.00632739 0
0.0149327 -0.00480512 0
0.0125336 -0.000578979 0
0.0121946 0.000113258 0
0.00999025 -0.000239205 0
0.00836016 -0.00176442 0
0.00722011 0.0012737 0
0.0135691 0.000903913 0
0.0142974 0.00350671 0
0.0127171 0.000794971 0
-0.00445488 -0.00526047 0
-0.00281171 -0.00550312 0
-0.00411573 -0.00485884 0
-0.0144272 -0.0104874 0
-0.0139054 -0.01143 0
-0.011296 -0.0104874 0
-0.00895839 -0.00361288 0
-0.00735432 -0.00524625 0
-0.0159928 -0.01143 0
-0.0152554 -0.0106447 0
-0.0169117 -0.00907397 0
-0.0102522 -0.0107547 0
-0.00764285 -0.01143 0
-0.00482627 -0.00563249 0
-0.00537125 -0.00506318 0
-0.00585971 -0.00762678 0
-0.00973035 -0.00846157 0
-0.00906364 -0.00815454 0
-0.00838861 -0.00802641 0
-0.0136898 -0.00781678 0
0.00869914 -0.00245666 0
0.00320016 -0.0176298 0
0.00536126 -0.01716 0
0.00305037 -0.0169003 0
0.00950632 -0.00544765 0
0.011203 -0.00664101 0
0.00723992 0.00266955 0
0.00626803 0.00285279 0
0.00347864 -0.00939135 0
0.00638861 -0.00760877 0
0.010075 -0.00854826 0
0.0120775 -0.00750402 0
0.0120427 -0.00264085 0
0.0135691 -0.000903913 0
0.00834941 -0.00305312 0
0.00967109 0.00184887 0
[...]
POINT_DATA 4381
SCALARS Eabs float 1
LOOKUP_TABLE jet
0.000000
0.000000
0.000000
0.000000
0.000000
0.000000
0.000000
0.000000
0.000000
3226.086068
3356.232612
1029.009345
1965.855705
1988.105620
1976.273467
803.820736
1914.832153
2886.795441
1426.970858
897.984727
600.703082
2193.713782
2004.016281
0.000000
0.000000
0.000000
1586.041826
1961.571338
0.000000
0.000000
1216.238892
0.000000
182.477551
0.000000
457.779522
243.809443
490.800896
0.000000
1076.288719
657.442943
0.000000
1988.987783
0.000000
1064.060877
1123.362216
2157.082300
3371.177942
1753.670670
0.000000
841.897128
1109.051409
984.017346
1089.978651
690.334888
1236.989968
0.000000
1849.936962
1790.920879
966.183434
0.000000
0.000000
1002.910263
581.862421
1221.177077
2496.769150
0.000000
1818.371478
0.000000
812.297321
1075.871154
2496.794914
2233.302009
1461.112647
3169.422086
0.000000
1036.724711
1303.722988
1528.993115
0.000000
1101.673804
1265.632285
800.292456
0.000000
1764.507835
676.671246
0.000000
1025.776268
2095.187771
2306.437549
2448.719371
1765.861264
2428.487894
2308.318870
2460.192729
0.000000
0.000000
1454.320756
677.736180
0.000000
1001.526226
2273.125585
1143.709476
1819.115972
2273.342809
933.576136
2609.617648
2397.594169
2495.712684
0.000000
768.698512
0.000000
0.000000
0.000000
2367.374761
1030.800488
1408.076809
2823.806760
2473.671974
1792.807909
2099.511876
0.000000
1655.560817
1479.700485
947.143700
811.826891
0.000000
839.400954
1296.845799
1581.943192
0.000000
1678.349717
2230.539603
1516.378968
748.823929
0.000000
1350.789634
1245.640094
2270.866453
2433.661834
2961.305011
2832.574275
3582.577568
1910.773920
2239.940023
2159.084010
1811.159964
0.000000
966.947266
1326.614649
3450.197777
2154.868183
2307.633628
1616.170042
2061.407007
2418.460466
1844.087833
2471.039264
2357.696680
2477.152190
2032.723184
2399.103862
2426.519413
2280.859574
2172.504705
1479.637695
2492.874093
2504.391910
2115.827248
1069.815734
2381.123119
2477.839169
2402.097200
2168.093876
0.000000
2471.619402
2075.898134
2432.040272
1343.164182
3594.295419
3448.990189
3184.986891
1862.639189
2161.318787
1739.290764
293.879790
0.000000
0.000000
201.249048
446.848136
237.924316
679.787423
322.087426
937.291408
0.000000
1083.652807
945.679927
466.560317
961.022036
0.000000
1079.251521
988.024497
1126.244634
0.000000
592.752372
0.000000
623.235101
695.459472
402.568738
732.100485
0.000000
947.690798
0.000000
347.084860
247.534665
339.391198
714.787951
1088.846772
811.529785
436.771519
0.000000
768.827080
547.105026
933.911452
1088.946686
0.000000
370.425876
285.980254
0.000000
354.952592
304.748420
717.055826
770.754202
937.314159
295.749221
0.000000
447.770229
1003.863055
1041.378176
1081.935308
813.811353
1018.548438
2784.575021
2590.851857
3135.218420
3312.281174
604.020525
1024.526660
376.891182
2872.489122
3284.247801
2135.012929
3253.890995
3366.778780
2893.454434
2976.992373
2477.360136
2461.616456
2421.925183
1678.339861
0.000000
1259.185832
2440.122906
2081.569663
2020.157632
3152.500374
2386.856205
3467.422083
0.000000
1112.707528
1320.642725
2439.191075
0.000000
2840.040732
0.000000
843.344638
1967.345035
887.633143
1320.002881
1058.325186
2655.439849
1913.386014
2829.136415
3409.560628
2691.699669
2235.673207
3464.222460
2641.971406
3187.237201
2213.083410
2665.719750
3052.439869
1085.748911
1006.722486
1039.378831
907.078860
0.000000
1320.661816
2033.609517
3035.470105
0.000000
1029.261266
967.519476
1505.964980
3187.896075
743.721399
1907.995082
501.597955
1585.961649
897.609438
801.574595
1927.502711
1227.998472
1152.274450
2116.611444
2039.101691
2059.782157
2747.098530
3231.006392
3333.859018
854.240394
1491.148025
1463.237082
2103.183671
1144.650539
1170.457017
3196.264927
3147.914906
3249.006925
2509.454252
1711.268377
1148.484096
2227.332908
3273.619060
3817.536911
569.162057
858.528423
619.154435
1867.289400
2352.448612
1301.832645
2446.546650
2270.104624
2187.394135
1841.394042
1663.138640
1226.706329
303.440696
90.582510
72.185449
2545.981974
2206.754540
2125.737545
1762.405438
1164.255504
1261.884804
849.085665
2294.352836
2784.553590
2171.815981
764.372147
852.714440
640.345665
1856.464751
3249.633573
2749.575553
1722.815006
464.877975
151.144434
200.594336
0.000000
107.426471
420.012648
157.267462
1127.473298
76.422548
0.000000
24.641580
256.442231
417.597620
1000.854986
954.595279
1949.362853
0.000000
265.559612
309.915160
2778.451753
2501.389599
2803.246893
491.244274
0.000000
540.779960
3373.551901
2971.951164
0.000000
395.356636
1067.407802
398.856381
0.000000
2741.334861
2905.277644
2197.753779
1687.622952
1862.171259
1945.945499
1843.844251
742.170457
858.075242
1022.486862
911.992542
214.857300
243.281138
2214.060189
2469.053072
1312.647563
757.417122
548.456285
314.596251
267.220985
0.000000
630.953199
1469.031570
102.097809
443.696866
558.363218
653.736339
211.967711
57.094881
54.065884
1407.488466
1161.193082
222.659036
752.894105
705.142229
888.067700
1011.888250
593.829428
1105.380030
964.559681
325.529358
1149.656200
279.703913
1795.123661
1797.721292
1080.536226
1442.412936
2026.893152
297.591935
1203.982717
0.000000
1974.952791
1386.517061
2074.109818
2132.192832
1308.142046
1487.156226
3634.823270
3634.380267
3657.698784
1810.944325
2699.149427
2564.589089
1984.588458
2134.339774
1714.317013
3102.257880
3130.021324
3374.384619
1502.069943
1449.810431
1847.192282
276.428592
45.851423
1099.768364
988.383714
1089.051881
1073.799528
753.025439
922.461244
974.723046
1092.189848
1100.856873
963.886404
924.395698
845.053938
996.827654
761.994047
690.734198
942.127060
871.492621
247.256211
147.027546
1607.034091
1031.017645
1659.590398
0.000000
206.714742
206.450812
0.000000
252.644356
2523.703871
1071.133523
1189.315076
1168.124956
2470.843299
2492.780018
0.000000
257.452906
257.614566
2131.453573
1419.450708
2056.017529
2347.986707
2489.404070
2413.282580
0.000000
146.538945
747.814705
899.990930
1058.172860
1708.251136
1834.129520
2497.536838
2502.299872
2423.420528
2007.735576
2223.857790
2293.554527
2201.283197
2202.794780
1652.274743
1597.915386
879.264076
2265.519160
2364.974389
2244.547725
277.328440
955.625841
0.000000
277.603490
1236.087047
1339.760956
1532.835745
1134.133522
341.769662
2216.154886
2069.882830
2344.831551
2258.265120
2192.295607
2383.301480
1535.105805
295.899783
1359.898551
3351.231881
2840.684370
3275.653470
0.000000
236.504075
0.000000
238.714861
919.179047
727.341553
1034.765021
999.817213
263.811821
2023.261470
1828.046743
1170.934859
1145.748903
1489.304097
1050.932498
845.878288
759.842775
851.396380
1222.186191
1144.658962
570.685261
650.037403
491.351134
1090.485033
1095.182284
1525.213341
1598.019663
765.703395
0.000000
0.000000
263.684459
0.000000
171.151353
510.497433
1855.207687
2493.835846
2350.502827
2484.717981
2214.071857
2154.900659
1445.587442
1672.089197
1241.336080
1929.246429
2443.998183
2494.167896
2485.001933
2448.936207
1930.664487
2487.347270
0.000000
387.064922
386.140323
2476.737390
2384.747112
1526.719342
760.044879
1593.917101
1380.679336
1739.839540
1516.059312
1473.777454
1706.499736
2002.176132
2084.509704
0.000000
257.257014
257.097279
2153.652240
1630.453963
1346.063528
511.181576
171.445785
0.000000
3734.065696
3174.243403
1221.452739
2022.927294
2416.564287
2347.261020
2855.232540
843.040313
2434.921719
3008.330256
2466.416770
2242.611087
910.926076
862.833915
346.985991
254.817320
849.603894
2221.846626
2502.898971
2493.010702
2467.236409
2574.708826
245.027722
923.429017
212.829958
682.727716
1115.627317
214.280534
959.058533
340.662285
2946.805098
1936.797127
1857.133952
2040.655106
1140.167237
2171.137395
3088.649622
2906.351358
3161.693626
2215.131238
1219.693793
0.000000
295.672184
2610.457473
351.411715
2426.636377
2266.235310
0.000000
366.918085
1478.397439
414.568206
1535.148880
1601.214232
2497.574295
2448.595083
2497.367353
2490.698064
2450.958497
2457.048667
2503.576216
2434.659563
1454.392271
2484.491209
2481.074171
2369.920715
1966.215529
1626.771356
1883.610253
1721.620991
393.920691
1363.752684
234.244225
1319.091307
1605.321246
224.245491
339.273251
0.000000
0.000000
0.000000
225.920978
1721.781937
1086.879488
0.000000
2492.782519
2450.465736
2071.430091
1857.509662
1899.726355
1410.555342
1906.797428
1687.298025
211.860021
0.000000
173.298649
885.851376
340.033436
281.056410
282.020661
1166.139913
0.000000
396.145604
2484.802738
2287.340960
2175.448998
2192.953372
1048.249116
1921.645156
2145.797431
276.298456
813.062528
0.000000
323.291398
1621.502249
1819.683077
360.262043
291.058919
0.000000
0.000000
348.899480
2175.537423
2593.924525
2671.105619
1944.755976
2394.205568
2566.305798
1407.127468
1434.772999
1808.211953
2168.248673
2210.474303
2128.412191
3007.149202
2575.390026
2422.634044
2123.539504
3310.708868
3450.029099
3514.193778
2226.730188
1049.828663
359.303637
1735.144100
2281.748703
1956.210941
1847.909019
1239.843190
979.026791
3169.154678
3053.283726
2774.404402
1628.819755
1658.141144
1787.468780
2282.061819
2257.243521
2684.293708
1793.944899
1954.265610
1530.861209
1260.277082
245.398710
2805.415805
2679.030660
2358.907457
2163.676084
2055.898104
226.897364
936.903068
268.948181
2390.538398
2339.969721
2454.322555
2011.027834
1009.434192
2107.560648
2312.471760
2255.046425
2215.633055
2500.657921
1918.237480
2267.360931
2498.805254
2293.532669
2186.140432
2122.563856
2193.513189
2354.557665
1936.564793
1733.127913
1583.616062
2318.421665
2400.457730
1976.083168
2481.343640
2498.925188
1912.033776
2432.837037
2308.049548
2501.839146
2500.064430
2129.221373
2432.281115
354.435867
1173.973829
2018.285223
2028.269253
2008.122057
2386.457952
1913.880770
2424.672561
2054.966329
2401.164079
2314.049155
2453.667855
1426.835317
2480.407433
353.051077
0.000000
3200.159175
2304.038727
3363.037745
3455.430046
3003.808049
3296.153114
3101.323461
3440.788986
3543.754858
1799.091604
1255.188786
566.559690
261.808885
401.150468
606.700818
333.320230
78.761728
62.073711
260.064185
0.000000
668.490017
507.836348
0.000000
353.454067
602.629393
605.236686
359.547656
0.000000
83.956174
1019.812461
1073.998617
1103.063759
94.292229
0.000000
94.459040
968.571848
1072.410052
1058.553126
119.852368
1087.125469
1066.751860
1085.273861
427.662799
76.593288
907.928160
889.724409
628.839463
543.770330
793.469986
955.410708
912.574935
620.705440
464.005920
701.253833
378.518349
115.310262
90.036157
1114.231720
739.757654
1227.303762
1115.447144
543.043709
706.275975
539.890911
108.974717
0.000000
102.330580
363.683193
535.796871
1089.687372
446.168576
646.018162
557.492635
416.498471
354.313163
955.916245
160.421620
62.819044
0.000000
62.084647
718.412617
344.835391
440.560534
0.000000
88.059308
88.402230
1092.515749
1071.347968
1083.612650
86.298411
86.137316
0.000000
322.342976
661.041340
752.069828
897.183390
650.092585
729.153544
739.541466
1071.068176
995.171863
966.013842
363.936120
874.527181
1082.067612
112.005677
143.132462
211.969698
717.611487
331.960880
142.781965
464.909746
0.000000
0.000000
814.972890
1067.493200
1078.754280
1088.257643
1090.947541
992.162225
1088.287389
334.390278
223.210176
115.015558
77.212188
349.527713
72.404027
0.000000
602.170226
0.000000
791.103888
764.824301
616.815421
842.572948
807.809993
985.265666
0.000000
533.574525
898.559655
780.060508
823.236210
483.683340
549.159028
974.570689
726.935338
0.000000
74.810234
0.000000
666.356683
698.081824
1013.601410
885.823140
965.584416
809.874788
1088.445000
838.714110
582.174876
3012.541567
3518.056139
2133.170553
2910.870303
3007.958774
3306.596954
3295.604925
104.472314
0.000000
87.875474
1888.121701
3147.650065
3317.880535
3265.362707
924.106030
1211.961570
3096.879107
3308.396343
3203.531642
2392.060445
3428.853090
2202.651509
2145.174222
1388.628628
2078.757748
2189.237455
2365.748582
1506.259426
0.000000
1514.449927
1899.367782
1120.786598
1771.427555
380.135559
227.117433
3033.197458
3109.090590
1019.537178
0.000000
338.269624
3396.753786
3107.651691
3468.833917
2171.194753
1542.159261
2932.083918
3430.466013
2876.354421
2721.175617
2153.440767
2490.506748
2250.595985
2328.410703
2039.819321
2319.078734
2323.807834
2823.262266
3036.385594
1894.345579
1991.211423
1460.032726
0.000000
258.072794
0.000000
1216.222808
205.092681
2812.316825
2642.945295
2170.494652
1482.642988
1681.740016
219.737161
219.610295
858.115091
2885.392109
3039.070878
1133.758817
0.000000
0.000000
2284.716076
1514.248080
1692.738295
1267.712972
1726.094866
1284.037885
1153.682375
1967.282567
2129.870248
338.087817
2347.956363
2734.062297
2997.235378
2641.569692
2200.465503
3256.713060
3319.595678
3577.771890
3623.570442
3562.976908
3530.846329
3456.661011
2517.654660
2188.323519
2241.767387
2520.727896
2666.581215
1989.098609
3433.493108
2588.050410
3403.007331
1088.662785
1013.665426
1015.439780
1089.046245
1083.825855
1088.241067
2608.674058
248.641816
260.415540
1019.407369
258.833443
1265.517942
1798.042317
3433.674892
1798.733646
0.000000
2196.254888
0.000000
1324.689724
2667.495128
1246.547992
1800.380532
888.965165
1295.311846
796.676165
667.597580
1923.714186
1459.168152
1285.847386
2247.371254
2051.152498
2204.030379
2890.535150
3053.204125
3281.764537
958.131882
1350.777152
1234.850639
1979.449437
424.604274
518.508503
3117.106353
3043.448636
3234.348217
2801.811283
1501.997217
97.456801
2294.655362
2963.977806
3710.170982
403.781289
893.930821
495.199838
2333.421542
2735.326987
1688.090571
2403.393278
2361.612759
2218.559711
1833.529365
1458.159984
1438.718762
320.748468
180.339665
144.126134
2492.009502
2385.361074
2238.246420
1632.811095
1300.926712
1053.826478
737.229977
2551.966401
2678.768222
2323.328066
832.040712
740.170494
586.132589
1720.079700
3110.292118
2704.919676
1471.490980
742.400468
304.216925
363.874097
0.000000
164.107019
364.140894
150.840496
1482.188802
150.381933
0.000000
87.488742
378.821121
713.929820
799.106791
1076.056971
1708.859911
0.000000
534.428514
572.543608
2663.991119
2500.035780
2707.381364
991.637378
0.000000
1054.315462
3363.822093
3122.196115
0.000000
774.039796
686.517786
802.179923
0.000000
2547.394797
2892.151197
2397.321696
1789.592026
2122.605884
2268.402607
1720.298836
662.343117
908.081020
1057.262072
1005.222831
274.867090
315.255734
2162.673880
2610.963874
1216.624594
893.984378
597.847549
441.894451
122.655278
0.000000
477.617399
1684.842546
50.109072
325.396198
526.570261
812.898741
221.587406
116.025703
105.752637
1371.464697
1224.356965
256.210715
840.747783
750.700432
926.448974
951.405765
687.523187
1117.515752
1050.552280
643.689681
1177.071211
562.342498
1584.668072
1577.748438
1095.434429
1721.202936
2065.476191
586.386222
1168.741342
0.000000
1758.430605
1528.890198
1985.148353
1979.845407
1445.642887
1807.678911
3627.847132
3653.809428
3656.152517
2003.782724
2563.700370
2268.346207
2454.043352
2509.481602
1653.235291
3329.278841
3058.316464
3513.783194
1545.913011
1379.691226
1729.716721
255.124977
94.912216
1074.980556
1030.115832
1087.752903
1042.960477
820.947475
851.061656
964.096767
1060.022361
1077.796711
969.054818
1009.890279
876.681220
1044.067864
827.201814
689.303438
944.927553
775.806124
492.326913
293.320565
1406.901373
1095.151628
1520.364911
0.000000
411.923043
411.559501
0.000000
498.376905
2299.567834
1404.280476
1485.755092
1100.180457
2425.938579
2488.110925
0.000000
512.195510
512.393869
2014.595833
1530.842612
1839.086999
2460.273997
2501.104296
2348.648625
0.000000
292.681940
910.188540
795.394399
1112.967872
1555.578317
1818.860039
2503.055451
2497.683981
2442.134746
1903.807216
2182.126179
2346.270250
2167.577344
2294.629137
1472.136615
1354.305087
945.571351
2219.415987
2412.538007
2348.472389
551.325377
908.138524
0.000000
551.690157
1167.164948
1626.456615
1742.805583
1191.557870
677.147134
2198.444394
1968.749226
2377.657659
2202.731631
2290.941086
2728.495694
1328.885361
553.917522
928.305833
3238.734652
2709.490742
3045.954144
0.000000
477.445240
0.000000
508.043321
807.569801
839.671078
1031.727201
677.144668
524.646247
2041.411256
1626.353992
1300.429887
1218.112332
1407.071203
1065.734272
604.045556
714.438996
905.753306
1184.767223
1173.513274
516.344718
677.050511
576.328586
1068.757624
1078.139927
1261.198427
1418.445215
853.640862
0.000000
0.000000
524.479430
0.000000
341.507547
341.787603
1940.677878
2484.823641
2388.959339
2448.704714
2313.176765
2210.064374
1586.811854
1484.465937
1184.900838
2075.397669
2439.053456
2485.608224
2449.394359
2306.992709
2076.927947
2497.456911
0.000000
764.399934
763.214217
2498.200454
2474.358954
1262.721743
841.499954
1408.143363
1462.039893
1855.570384
1718.012558
1430.690544
1879.559790
1807.397659
1784.377115
0.000000
511.722191
511.509037
1957.141203
1793.628106
1234.307393
342.181900
342.084710
0.000000
3620.257363
2780.074595
1340.248529
2138.537850
2333.920211
2403.306091
2558.609416
526.711519
2553.037126
2821.679539
2454.257322
2316.214732
756.271216
838.697926
556.790813
491.635073
927.215943
2283.505802
2500.687852
2501.314702
2502.804577
2539.087540
486.372212
897.201867
424.982137
696.806763
1056.766179
426.842857
1075.322630
674.523846
3049.633283
2417.790853
2256.277360
1703.327412
1241.253779
1944.800719
3306.147429
2956.321261
3335.954349
2048.482548
1389.894794
0.000000
570.750110
2830.797196
706.660045
2460.564468
2069.781249
0.000000
732.241118
1531.146190
820.435949
1479.897542
1839.479674
2497.490755
2467.100985
2486.393997
2499.417669
2484.149837
2439.558322
2492.785486
2448.802907
1247.280067
2464.681739
2453.167340
2380.799880
1817.790323
1587.924286
1964.613074
1645.884088
778.535504
1235.567758
473.335959
1151.793235
1400.522277
437.752569
672.738837
0.000000
0.000000
0.000000
410.610429
1645.741525
1222.663005
0.000000
2487.932825
2424.763227
2107.628035
1919.060775
1998.879206
1300.683372
1659.496288
1845.026835
407.516287
0.000000
354.957473
1033.058342
681.856781
598.263117
564.013629
1220.861102
0.000000
761.659858
2672.706447
2337.626084
2273.370979
2152.159768
1248.407309
1746.860112
2122.985270
548.907807
546.953669
0.000000
636.281644
1549.287878
1967.599685
693.470346
600.362433
0.000000
0.000000
687.992358
2081.817961
2335.369287
2512.590931
2162.469945
2458.282107
2702.948126
1561.172824
1638.627201
1840.102140
2127.340596
2236.774216
2083.323851
2999.755971
2692.869861
2385.145167
2432.598741
3430.401248
3515.074074
3573.524089
2096.944702
1133.311859
703.145180
1780.249927
2133.188632
2026.920722
1814.271525
1247.181586
681.160348
3158.267664
2937.215586
2877.095005
1425.431087
1526.205471
1804.347645
2408.243720
2380.051855
2702.811173
1656.492179
2026.349639
1752.492137
1208.133658
497.981187
2764.904634
2527.161081
2468.734492
2156.048723
1972.368549
451.368036
982.206082
536.898809
2451.247759
2369.262086
2480.603111
1957.929937
1173.432237
1963.308333
2380.071682
2196.413548
2107.185880
2503.271177
1988.297106
2300.806510
2496.637813
2217.791078
2138.371906
2142.079058
2274.750743
2301.943611
2067.356955
1841.902467
1550.070624
2274.449246
2406.807191
2090.472396
2456.815048
2476.388463
1779.128388
2460.334540
2333.934328
2496.559553
2481.452048
2142.382972
2364.964223
700.923603
800.415153
2163.990546
2181.180627
2170.083737
2391.772455
2003.083109
2356.876874
2245.461874
2316.789317
2380.915267
2446.791832
1399.140350
2498.402439
699.202204
0.000000
3203.599134
2617.045049
3389.905600
3481.295933
2707.966119
3257.552643
2954.512183
3400.615149
3463.508918
1779.489335
1426.286097
473.983033
323.126928
351.052639
554.695995
372.075280
159.292485
122.594164
281.479493
0.000000
675.685308
567.384490
0.000000
466.771527
516.998113
514.869401
396.186211
0.000000
166.192279
1048.100171
1044.405898
1097.311120
187.941330
0.000000
188.164443
996.382820
1063.860500
1027.818672
238.568112
1072.236456
1049.975299
1088.834906
387.625014
153.359171
813.575330
804.108559
664.058095
495.850446
850.053252
951.522010
857.912826
541.220630
553.520446
706.841006
401.846692
229.217198
179.617512
1118.790635
685.545278
1173.137884
1096.002331
491.234749
603.407984
481.017915
211.770026
0.000000
204.138673
324.896487